<?xml version="1.0" encoding="iso-8859-1"?>
<configuration xmlns:xsi="http://www.w3.org/2001/XMLSchema-instance" xsi:noNamespaceSchemaLocation="http://sumo.sf.net/xsd/sumoConfiguration.xsd">

    <input>
        <net-file value="san_francisco.net.xml"/>
        <route-files value="san_francisco.rou.xml,Scenario_Set_1/trip_0.05_with_0.5_drop-off.xml"/>
        <gui-settings-file value="gui-settings.cfg"/>
	<additional-files value="san_francisco.poly.xml,Scenario_Set_1/off_parking.working.add.xml,Scenario_Set_1/on_parking.add.xml,reroute_parking.xml"/>
    </input>

    <time>
        <begin value="0"/>
        <end value="-1"/>
        <step-length value="1" />
    </time>

    <processing>
        <time-to-teleport value="0" />
        <xml-validation value="never" />
    </processing>

    <report>
        <verbose value="true"/>
    </report>

    <output>
        <summary value="Scenario_Set_1/results/summary_0.05_with_0.5_drop-off.xml"/>
        <queue-output value="Scenario_Set_1/results/queue_0.05_with_0.5_drop-off.xml"/>
        <netstate-dump value="Scenario_Set_1/results/dump_0.05_with_0.5_drop-off.xml"/>
    </output>

</configuration>
